# Forces      
# CofR        : (0.000000e+00 0.000000e+00 0.000000e+00)
# Time        forces(pressure viscous porous)	moments(pressure viscous porous)
20            	((0.000000e+00 0.000000e+00 0.000000e+00) (0.000000e+00 0.000000e+00 0.000000e+00) (8.654661e+04 3.386435e-13 7.464631e+04)) ((0.000000e+00 0.000000e+00 0.000000e+00) (0.000000e+00 0.000000e+00 0.000000e+00) (6.664546e+04 6.416328e+03 -7.459681e+04))
40            	((0.000000e+00 0.000000e+00 0.000000e+00) (0.000000e+00 0.000000e+00 0.000000e+00) (4.902740e+04 -1.116074e-12 1.078629e+05)) ((0.000000e+00 0.000000e+00 0.000000e+00) (0.000000e+00 0.000000e+00 0.000000e+00) (9.692321e+04 -4.202321e+04 -3.872337e+04))
60            	((0.000000e+00 0.000000e+00 0.000000e+00) (0.000000e+00 0.000000e+00 0.000000e+00) (1.477787e+04 2.087126e-13 1.254050e+05)) ((0.000000e+00 0.000000e+00 0.000000e+00) (0.000000e+00 0.000000e+00 0.000000e+00) (1.111833e+05 -7.752885e+04 -6.587068e+03))
80            	((0.000000e+00 0.000000e+00 0.000000e+00) (0.000000e+00 0.000000e+00 0.000000e+00) (-2.254472e+04 4.367994e-13 1.311969e+05)) ((0.000000e+00 0.000000e+00 0.000000e+00) (0.000000e+00 0.000000e+00 0.000000e+00) (1.136423e+05 -1.074224e+05 2.900960e+04))
100           	((0.000000e+00 0.000000e+00 0.000000e+00) (0.000000e+00 0.000000e+00 0.000000e+00) (-5.623793e+04 1.254324e-12 1.290410e+05)) ((0.000000e+00 0.000000e+00 0.000000e+00) (0.000000e+00 0.000000e+00 0.000000e+00) (1.085532e+05 -1.291837e+05 5.990709e+04))
120           	((0.000000e+00 0.000000e+00 0.000000e+00) (0.000000e+00 0.000000e+00 0.000000e+00) (-8.713941e+04 -1.199801e-12 1.211883e+05)) ((0.000000e+00 0.000000e+00 0.000000e+00) (0.000000e+00 0.000000e+00 0.000000e+00) (9.845209e+04 -1.451773e+05 8.747131e+04))
140           	((0.000000e+00 0.000000e+00 0.000000e+00) (0.000000e+00 0.000000e+00 0.000000e+00) (-1.151287e+05 1.275993e-12 1.105532e+05)) ((0.000000e+00 0.000000e+00 0.000000e+00) (0.000000e+00 0.000000e+00 0.000000e+00) (8.730491e+04 -1.568099e+05 1.119259e+05))
160           	((0.000000e+00 0.000000e+00 0.000000e+00) (0.000000e+00 0.000000e+00 0.000000e+00) (-1.434034e+05 -2.001869e-12 9.055812e+04)) ((0.000000e+00 0.000000e+00 0.000000e+00) (0.000000e+00 0.000000e+00 0.000000e+00) (6.678836e+04 -1.633067e+05 1.330991e+05))
180           	((0.000000e+00 0.000000e+00 0.000000e+00) (0.000000e+00 0.000000e+00 0.000000e+00) (-1.519696e+05 2.574244e-12 7.266406e+04)) ((0.000000e+00 0.000000e+00 0.000000e+00) (0.000000e+00 0.000000e+00 0.000000e+00) (4.990080e+04 -1.589437e+05 1.360485e+05))
200           	((0.000000e+00 0.000000e+00 0.000000e+00) (0.000000e+00 0.000000e+00 0.000000e+00) (-1.547200e+05 -2.039598e-12 5.449458e+04)) ((0.000000e+00 0.000000e+00 0.000000e+00) (0.000000e+00 0.000000e+00 0.000000e+00) (3.388392e+04 -1.506006e+05 1.335298e+05))
220           	((0.000000e+00 0.000000e+00 0.000000e+00) (0.000000e+00 0.000000e+00 0.000000e+00) (-1.516538e+05 3.550647e-12 3.699910e+04)) ((0.000000e+00 0.000000e+00 0.000000e+00) (0.000000e+00 0.000000e+00 0.000000e+00) (1.957374e+04 -1.390156e+05 1.258970e+05))
240           	((0.000000e+00 0.000000e+00 0.000000e+00) (0.000000e+00 0.000000e+00 0.000000e+00) (-1.433299e+05 -3.291201e-13 2.152027e+04)) ((0.000000e+00 0.000000e+00 0.000000e+00) (0.000000e+00 0.000000e+00 0.000000e+00) (7.979498e+03 -1.254930e+05 1.139381e+05))
260           	((0.000000e+00 0.000000e+00 0.000000e+00) (0.000000e+00 0.000000e+00 0.000000e+00) (-1.308190e+05 -1.844309e-12 9.283945e+03)) ((0.000000e+00 0.000000e+00 0.000000e+00) (0.000000e+00 0.000000e+00 0.000000e+00) (-4.708576e+01 -1.115361e+05 9.888988e+04))
280           	((0.000000e+00 0.000000e+00 0.000000e+00) (0.000000e+00 0.000000e+00 0.000000e+00) (-1.156257e+05 -2.621149e-12 1.047283e+03)) ((0.000000e+00 0.000000e+00 0.000000e+00) (0.000000e+00 0.000000e+00 0.000000e+00) (-4.133451e+03 -9.855668e+04 8.228601e+04))
300           	((0.000000e+00 0.000000e+00 0.000000e+00) (0.000000e+00 0.000000e+00 0.000000e+00) (-9.924397e+04 -4.639923e-12 -3.014371e+03)) ((0.000000e+00 0.000000e+00 0.000000e+00) (0.000000e+00 0.000000e+00 0.000000e+00) (-4.420697e+03 -8.754658e+04 6.558791e+04))
320           	((0.000000e+00 0.000000e+00 0.000000e+00) (0.000000e+00 0.000000e+00 0.000000e+00) (-8.286109e+04 8.918907e-14 -3.362026e+03)) ((0.000000e+00 0.000000e+00 0.000000e+00) (0.000000e+00 0.000000e+00 0.000000e+00) (-1.648498e+03 -7.887463e+04 4.986943e+04))
340           	((0.000000e+00 0.000000e+00 0.000000e+00) (0.000000e+00 0.000000e+00 0.000000e+00) (-6.743877e+04 -2.019001e-13 -8.571896e+02)) ((0.000000e+00 0.000000e+00 0.000000e+00) (0.000000e+00 0.000000e+00 0.000000e+00) (3.147947e+03 -7.253163e+04 3.592668e+04))
360           	((0.000000e+00 0.000000e+00 0.000000e+00) (0.000000e+00 0.000000e+00 0.000000e+00) (-5.362259e+04 -1.073259e-15 3.514367e+03)) ((0.000000e+00 0.000000e+00 0.000000e+00) (0.000000e+00 0.000000e+00 0.000000e+00) (8.942309e+03 -6.824315e+04 2.420605e+04))
380           	((0.000000e+00 0.000000e+00 0.000000e+00) (0.000000e+00 0.000000e+00 0.000000e+00) (-4.181361e+04 4.627832e-12 8.903390e+03)) ((0.000000e+00 0.000000e+00 0.000000e+00) (0.000000e+00 0.000000e+00 0.000000e+00) (1.495934e+04 -6.569024e+04 1.484612e+04))
400           	((0.000000e+00 0.000000e+00 0.000000e+00) (0.000000e+00 0.000000e+00 0.000000e+00) (-3.195462e+04 -1.496734e-12 1.480095e+04)) ((0.000000e+00 0.000000e+00 0.000000e+00) (0.000000e+00 0.000000e+00 0.000000e+00) (2.086064e+04 -6.448527e+04 7.559969e+03))
420           	((0.000000e+00 0.000000e+00 0.000000e+00) (0.000000e+00 0.000000e+00 0.000000e+00) (-2.385377e+04 -8.097681e-12 2.076217e+04)) ((0.000000e+00 0.000000e+00 0.000000e+00) (0.000000e+00 0.000000e+00 0.000000e+00) (2.638883e+04 -6.421032e+04 1.931364e+03))
440           	((0.000000e+00 0.000000e+00 0.000000e+00) (0.000000e+00 0.000000e+00 0.000000e+00) (-1.729247e+04 -1.549628e-12 2.650453e+04)) ((0.000000e+00 0.000000e+00 0.000000e+00) (0.000000e+00 0.000000e+00 0.000000e+00) (3.141584e+04 -6.455890e+04 -2.401600e+03))
460           	((0.000000e+00 0.000000e+00 0.000000e+00) (0.000000e+00 0.000000e+00 0.000000e+00) (-1.206010e+04 -4.465184e-12 3.189801e+04)) ((0.000000e+00 0.000000e+00 0.000000e+00) (0.000000e+00 0.000000e+00 0.000000e+00) (3.591600e+04 -6.533857e+04 -5.728870e+03))
480           	((0.000000e+00 0.000000e+00 0.000000e+00) (0.000000e+00 0.000000e+00 0.000000e+00) (-7.929045e+03 -4.620814e-12 3.690682e+04)) ((0.000000e+00 0.000000e+00 0.000000e+00) (0.000000e+00 0.000000e+00 0.000000e+00) (3.992083e+04 -6.640977e+04 -8.274894e+03))
500           	((0.000000e+00 0.000000e+00 0.000000e+00) (0.000000e+00 0.000000e+00 0.000000e+00) (-4.685559e+03 -1.654203e-12 4.151735e+04)) ((0.000000e+00 0.000000e+00 0.000000e+00) (0.000000e+00 0.000000e+00 0.000000e+00) (4.348797e+04 -6.766060e+04 -1.023775e+04))
520           	((0.000000e+00 0.000000e+00 0.000000e+00) (0.000000e+00 0.000000e+00 0.000000e+00) (-2.111689e+03 -6.391176e-12 4.574380e+04)) ((0.000000e+00 0.000000e+00 0.000000e+00) (0.000000e+00 0.000000e+00 0.000000e+00) (4.667726e+04 -6.899081e+04 -1.178054e+04))
540           	((0.000000e+00 0.000000e+00 0.000000e+00) (0.000000e+00 0.000000e+00 0.000000e+00) (-5.974337e+01 4.034000e-12 4.961176e+04)) ((0.000000e+00 0.000000e+00 0.000000e+00) (0.000000e+00 0.000000e+00 0.000000e+00) (4.953559e+04 -7.034625e+04 -1.301971e+04))
560           	((0.000000e+00 0.000000e+00 0.000000e+00) (0.000000e+00 0.000000e+00 0.000000e+00) (1.577559e+03 9.001585e-12 5.311866e+04)) ((0.000000e+00 0.000000e+00 0.000000e+00) (0.000000e+00 0.000000e+00 0.000000e+00) (5.206567e+04 -7.168259e+04 -1.403012e+04))
580           	((0.000000e+00 0.000000e+00 0.000000e+00) (0.000000e+00 0.000000e+00 0.000000e+00) (2.894133e+03 9.474707e-14 5.626255e+04)) ((0.000000e+00 0.000000e+00 0.000000e+00) (0.000000e+00 0.000000e+00 0.000000e+00) (5.426170e+04 -7.295381e+04 -1.487142e+04))
600           	((0.000000e+00 0.000000e+00 0.000000e+00) (0.000000e+00 0.000000e+00 0.000000e+00) (4.001042e+03 4.579968e-12 5.911324e+04)) ((0.000000e+00 0.000000e+00 0.000000e+00) (0.000000e+00 0.000000e+00 0.000000e+00) (5.620455e+04 -7.414363e+04 -1.561809e+04))
620           	((0.000000e+00 0.000000e+00 0.000000e+00) (0.000000e+00 0.000000e+00 0.000000e+00) (4.989047e+03 2.565676e-12 6.170093e+04)) ((0.000000e+00 0.000000e+00 0.000000e+00) (0.000000e+00 0.000000e+00 0.000000e+00) (5.793483e+04 -7.522160e+04 -1.630458e+04))
640           	((0.000000e+00 0.000000e+00 0.000000e+00) (0.000000e+00 0.000000e+00 0.000000e+00) (5.868973e+03 5.335814e-12 6.404073e+04)) ((0.000000e+00 0.000000e+00 0.000000e+00) (0.000000e+00 0.000000e+00 0.000000e+00) (5.947042e+04 -7.619805e+04 -1.693132e+04))
660           	((0.000000e+00 0.000000e+00 0.000000e+00) (0.000000e+00 0.000000e+00 0.000000e+00) (6.658889e+03 -1.315542e-12 6.615565e+04)) ((0.000000e+00 0.000000e+00 0.000000e+00) (0.000000e+00 0.000000e+00 0.000000e+00) (6.085083e+04 -7.707953e+04 -1.749578e+04))
680           	((0.000000e+00 0.000000e+00 0.000000e+00) (0.000000e+00 0.000000e+00 0.000000e+00) (7.377047e+03 1.618679e-11 6.806546e+04)) ((0.000000e+00 0.000000e+00 0.000000e+00) (0.000000e+00 0.000000e+00 0.000000e+00) (6.208690e+04 -7.786928e+04 -1.800967e+04))
700           	((0.000000e+00 0.000000e+00 0.000000e+00) (0.000000e+00 0.000000e+00 0.000000e+00) (8.015830e+03 -1.053973e-11 6.977891e+04)) ((0.000000e+00 0.000000e+00 0.000000e+00) (0.000000e+00 0.000000e+00 0.000000e+00) (6.318014e+04 -7.857729e+04 -1.846201e+04))
720           	((0.000000e+00 0.000000e+00 0.000000e+00) (0.000000e+00 0.000000e+00 0.000000e+00) (8.569539e+03 -5.965187e-13 7.128856e+04)) ((0.000000e+00 0.000000e+00 0.000000e+00) (0.000000e+00 0.000000e+00 0.000000e+00) (6.412480e+04 -7.920141e+04 -1.884676e+04))
740           	((0.000000e+00 0.000000e+00 0.000000e+00) (0.000000e+00 0.000000e+00 0.000000e+00) (9.032878e+03 2.758912e-12 7.257196e+04)) ((0.000000e+00 0.000000e+00 0.000000e+00) (0.000000e+00 0.000000e+00 0.000000e+00) (6.491037e+04 -7.973167e+04 -1.916393e+04))
760           	((0.000000e+00 0.000000e+00 0.000000e+00) (0.000000e+00 0.000000e+00 0.000000e+00) (9.427651e+03 6.945400e-12 7.364098e+04)) ((0.000000e+00 0.000000e+00 0.000000e+00) (0.000000e+00 0.000000e+00 0.000000e+00) (6.553915e+04 -8.016210e+04 -1.943328e+04))
780           	((0.000000e+00 0.000000e+00 0.000000e+00) (0.000000e+00 0.000000e+00 0.000000e+00) (9.783145e+03 -1.007089e-11 7.449961e+04)) ((0.000000e+00 0.000000e+00 0.000000e+00) (0.000000e+00 0.000000e+00 0.000000e+00) (6.601489e+04 -8.047837e+04 -1.968109e+04))
800           	((0.000000e+00 0.000000e+00 0.000000e+00) (0.000000e+00 0.000000e+00 0.000000e+00) (1.012457e+04 2.369743e-12 7.514944e+04)) ((0.000000e+00 0.000000e+00 0.000000e+00) (0.000000e+00 0.000000e+00 0.000000e+00) (6.634874e+04 -8.066954e+04 -1.992443e+04))
820           	((0.000000e+00 0.000000e+00 0.000000e+00) (0.000000e+00 0.000000e+00 0.000000e+00) (1.046627e+04 -7.870623e-12 7.560223e+04)) ((0.000000e+00 0.000000e+00 0.000000e+00) (0.000000e+00 0.000000e+00 0.000000e+00) (6.655512e+04 -8.073684e+04 -2.017253e+04))
840           	((0.000000e+00 0.000000e+00 0.000000e+00) (0.000000e+00 0.000000e+00 0.000000e+00) (1.081831e+04 -1.909189e-11 7.587613e+04)) ((0.000000e+00 0.000000e+00 0.000000e+00) (0.000000e+00 0.000000e+00 0.000000e+00) (6.664783e+04 -8.068702e+04 -2.043619e+04))
860           	((0.000000e+00 0.000000e+00 0.000000e+00) (0.000000e+00 0.000000e+00 0.000000e+00) (1.120297e+04 4.838150e-12 7.599612e+04)) ((0.000000e+00 0.000000e+00 0.000000e+00) (0.000000e+00 0.000000e+00 0.000000e+00) (6.664218e+04 -8.052411e+04 -2.072881e+04))
880           	((0.000000e+00 0.000000e+00 0.000000e+00) (0.000000e+00 0.000000e+00 0.000000e+00) (1.164273e+04 -6.857850e-12 7.599505e+04)) ((0.000000e+00 0.000000e+00 0.000000e+00) (0.000000e+00 0.000000e+00 0.000000e+00) (6.655778e+04 -8.025671e+04 -2.106023e+04))
900           	((0.000000e+00 0.000000e+00 0.000000e+00) (0.000000e+00 0.000000e+00 0.000000e+00) (1.214849e+04 7.551660e-12 7.590272e+04)) ((0.000000e+00 0.000000e+00 0.000000e+00) (0.000000e+00 0.000000e+00 0.000000e+00) (6.641627e+04 -7.989862e+04 -2.143330e+04))
920           	((0.000000e+00 0.000000e+00 0.000000e+00) (0.000000e+00 0.000000e+00 0.000000e+00) (1.271747e+04 1.455572e-11 7.574770e+04)) ((0.000000e+00 0.000000e+00 0.000000e+00) (0.000000e+00 0.000000e+00 0.000000e+00) (6.623849e+04 -7.947084e+04 -2.184464e+04))
940           	((0.000000e+00 0.000000e+00 0.000000e+00) (0.000000e+00 0.000000e+00 0.000000e+00) (1.333602e+04 2.756568e-11 7.555636e+04)) ((0.000000e+00 0.000000e+00 0.000000e+00) (0.000000e+00 0.000000e+00 0.000000e+00) (6.604457e+04 -7.899900e+04 -2.228679e+04))
960           	((0.000000e+00 0.000000e+00 0.000000e+00) (0.000000e+00 0.000000e+00 0.000000e+00) (1.398707e+04 -1.243417e-11 7.535009e+04)) ((0.000000e+00 0.000000e+00 0.000000e+00) (0.000000e+00 0.000000e+00 0.000000e+00) (6.584856e+04 -7.850683e+04 -2.275215e+04))
980           	((0.000000e+00 0.000000e+00 0.000000e+00) (0.000000e+00 0.000000e+00 0.000000e+00) (1.465718e+04 -6.683091e-12 7.514329e+04)) ((0.000000e+00 0.000000e+00 0.000000e+00) (0.000000e+00 0.000000e+00 0.000000e+00) (6.566090e+04 -7.801049e+04 -2.323595e+04))
1000          	((0.000000e+00 0.000000e+00 0.000000e+00) (0.000000e+00 0.000000e+00 0.000000e+00) (1.533276e+04 -1.431530e-11 7.495483e+04)) ((0.000000e+00 0.000000e+00 0.000000e+00) (0.000000e+00 0.000000e+00 0.000000e+00) (6.549058e+04 -7.752879e+04 -2.372988e+04))
1020          	((0.000000e+00 0.000000e+00 0.000000e+00) (0.000000e+00 0.000000e+00 0.000000e+00) (1.600216e+04 1.662595e-11 7.478921e+04)) ((0.000000e+00 0.000000e+00 0.000000e+00) (0.000000e+00 0.000000e+00 0.000000e+00) (6.534023e+04 -7.706947e+04 -2.422895e+04))
1040          	((0.000000e+00 0.000000e+00 0.000000e+00) (0.000000e+00 0.000000e+00 0.000000e+00) (1.664781e+04 -1.525210e-11 7.463726e+04)) ((0.000000e+00 0.000000e+00 0.000000e+00) (0.000000e+00 0.000000e+00 0.000000e+00) (6.520711e+04 -7.663551e+04 -2.471973e+04))
1060          	((0.000000e+00 0.000000e+00 0.000000e+00) (0.000000e+00 0.000000e+00 0.000000e+00) (1.725064e+04 -7.760310e-12 7.447941e+04)) ((0.000000e+00 0.000000e+00 0.000000e+00) (0.000000e+00 0.000000e+00 0.000000e+00) (6.508334e+04 -7.622506e+04 -2.518243e+04))
1080          	((0.000000e+00 0.000000e+00 0.000000e+00) (0.000000e+00 0.000000e+00 0.000000e+00) (1.776702e+04 -1.271949e-11 7.432813e+04)) ((0.000000e+00 0.000000e+00 0.000000e+00) (0.000000e+00 0.000000e+00 0.000000e+00) (6.496996e+04 -7.586784e+04 -2.559388e+04))
1100          	((0.000000e+00 0.000000e+00 0.000000e+00) (0.000000e+00 0.000000e+00 0.000000e+00) (1.817547e+04 -1.559635e-11 7.422538e+04)) ((0.000000e+00 0.000000e+00 0.000000e+00) (0.000000e+00 0.000000e+00 0.000000e+00) (6.488037e+04 -7.560290e+04 -2.594337e+04))
