# Region      : cellZone cz_solid_56
# Cells       : 1344
# Volume      : 2.139181e-03
# Time        	volIntegrateU
20            	6.289116e-09 -1.564151e-08 1.300678e-09
40            	4.510417e-09 -2.284167e-08 2.052515e-09
60            	2.284477e-09 -2.380362e-08 2.011974e-09
80            	2.660316e-10 -1.925370e-08 1.255925e-09
100           	-1.026408e-09 -1.157851e-08 3.550049e-10
120           	-1.641894e-09 -3.106495e-09 -3.286155e-10
140           	-1.869181e-09 4.680571e-09 -7.576469e-10
160           	-1.745807e-09 1.136566e-08 -1.035704e-09
180           	-1.395455e-09 1.686693e-08 -1.132400e-09
200           	-9.927904e-10 2.132521e-08 -1.160056e-09
220           	-5.926427e-10 2.494655e-08 -1.150415e-09
240           	-2.146113e-10 2.793289e-08 -1.121589e-09
260           	1.286513e-10 3.045638e-08 -1.082221e-09
280           	4.371085e-10 3.264867e-08 -1.035647e-09
300           	7.152895e-10 3.461558e-08 -9.831065e-10
320           	9.612758e-10 3.644038e-08 -9.270334e-10
340           	1.180581e-09 3.819444e-08 -8.718795e-10
360           	1.379111e-09 3.993902e-08 -8.245255e-10
380           	1.565425e-09 4.172927e-08 -7.878822e-10
400           	1.745148e-09 4.361346e-08 -7.535057e-10
420           	1.914903e-09 4.563105e-08 -6.985796e-10
440           	2.060232e-09 4.778733e-08 -6.039154e-10
460           	2.161710e-09 5.004516e-08 -4.788933e-10
480           	2.209971e-09 5.233420e-08 -3.605495e-10
500           	2.212548e-09 5.457166e-08 -2.782041e-10
520           	2.182604e-09 5.669971e-08 -2.335458e-10
540           	2.136914e-09 5.870388e-08 -2.107131e-10
560           	2.083585e-09 6.060585e-08 -1.965165e-10
580           	2.024599e-09 6.243727e-08 -1.842915e-10
600           	1.958959e-09 6.422689e-08 -1.730626e-10
620           	1.886070e-09 6.599903e-08 -1.630195e-10
640           	1.807095e-09 6.777139e-08 -1.543335e-10
660           	1.723445e-09 6.955570e-08 -1.458777e-10
680           	1.636545e-09 7.135807e-08 -1.373120e-10
700           	1.546773e-09 7.318013e-08 -1.288229e-10
720           	1.454198e-09 7.502078e-08 -1.208776e-10
740           	1.359998e-09 7.687621e-08 -1.139085e-10
760           	1.264916e-09 7.874119e-08 -1.079665e-10
780           	1.169015e-09 8.061044e-08 -1.025755e-10
800           	1.072426e-09 8.247901e-08 -9.702234e-11
820           	9.742590e-10 8.434363e-08 -9.090068e-11
840           	8.741756e-10 8.620154e-08 -8.422148e-11
860           	7.725375e-10 8.805168e-08 -7.722127e-11
880           	6.695837e-10 8.989423e-08 -7.030277e-11
900           	5.661164e-10 9.173022e-08 -6.346474e-11
920           	4.640621e-10 9.356054e-08 -5.696952e-11
940           	3.654507e-10 9.538391e-08 -5.143318e-11
960           	2.722337e-10 9.719727e-08 -4.745424e-11
980           	1.849888e-10 9.899575e-08 -4.510940e-11
1000          	1.033671e-10 1.007739e-07 -4.399774e-11
1020          	2.778513e-11 1.025264e-07 -4.393581e-11
1040          	-4.143023e-11 1.042495e-07 -4.497016e-11
1060          	-1.043516e-10 1.059416e-07 -4.693310e-11
1080          	-1.619227e-10 1.076034e-07 -4.966974e-11
1100          	-2.149958e-10 1.092367e-07 -5.304861e-11
1120          	-2.643482e-10 1.108445e-07 -5.699597e-11
1140          	-3.103297e-10 1.124293e-07 -6.157834e-11
1160          	-3.526998e-10 1.139932e-07 -6.679580e-11
1180          	-3.915932e-10 1.155374e-07 -7.260193e-11
1200          	-4.270583e-10 1.170622e-07 -7.893102e-11
1220          	-4.588589e-10 1.185688e-07 -8.547741e-11
1240          	-4.871569e-10 1.200584e-07 -9.192762e-11
1260          	-5.120801e-10 1.215323e-07 -9.783004e-11
1280          	-5.339836e-10 1.229914e-07 -1.027299e-10
1300          	-5.533218e-10 1.244358e-07 -1.063181e-10
1320          	-5.702017e-10 1.258648e-07 -1.085098e-10
1340          	-5.845012e-10 1.272787e-07 -1.096744e-10
1360          	-5.958061e-10 1.286782e-07 -1.105049e-10
1380          	-6.038116e-10 1.300644e-07 -1.117955e-10
1400          	-6.085567e-10 1.314372e-07 -1.141223e-10
1420          	-6.102971e-10 1.327957e-07 -1.176792e-10
1440          	-6.092968e-10 1.341374e-07 -1.224856e-10
1460          	-6.058038e-10 1.354613e-07 -1.284603e-10
1480          	-6.002085e-10 1.367660e-07 -1.354433e-10
1500          	-5.930817e-10 1.380511e-07 -1.431677e-10
1520          	-5.851828e-10 1.393167e-07 -1.512336e-10
1540          	-5.772675e-10 1.405634e-07 -1.592057e-10
1560          	-5.701588e-10 1.417931e-07 -1.666665e-10
1580          	-5.641680e-10 1.430066e-07 -1.731543e-10
1600          	-5.596158e-10 1.442069e-07 -1.785986e-10
1620          	-5.561858e-10 1.453955e-07 -1.828108e-10
1640          	-5.538050e-10 1.465744e-07 -1.860553e-10
1660          	-5.519350e-10 1.477451e-07 -1.883414e-10
1680          	-5.504348e-10 1.489085e-07 -1.899765e-10
1700          	-5.491038e-10 1.500658e-07 -1.910170e-10
1720          	-5.479027e-10 1.512178e-07 -1.916138e-10
1740          	-5.468310e-10 1.523653e-07 -1.918447e-10
1760          	-5.459647e-10 1.535085e-07 -1.917991e-10
1780          	-5.453776e-10 1.546479e-07 -1.915800e-10
1800          	-5.451190e-10 1.557843e-07 -1.912481e-10
1820          	-5.451803e-10 1.569174e-07 -1.908982e-10
1840          	-5.455266e-10 1.580481e-07 -1.905319e-10
1860          	-5.460926e-10 1.591768e-07 -1.902111e-10
1880          	-5.468222e-10 1.603035e-07 -1.899512e-10
1900          	-5.475430e-10 1.614291e-07 -1.897319e-10
1920          	-5.483463e-10 1.625541e-07 -1.895346e-10
1940          	-5.491495e-10 1.636785e-07 -1.893977e-10
1960          	-5.499611e-10 1.648023e-07 -1.893087e-10
1980          	-5.507244e-10 1.659261e-07 -1.892266e-10
2000          	-5.514953e-10 1.670501e-07 -1.891913e-10
2020          	-5.522613e-10 1.681737e-07 -1.891892e-10
2040          	-5.529964e-10 1.692979e-07 -1.892067e-10
2060          	-5.536506e-10 1.704218e-07 -1.892352e-10
2080          	-5.542725e-10 1.715456e-07 -1.893085e-10
2100          	-5.548287e-10 1.726695e-07 -1.893908e-10
2120          	-5.553162e-10 1.737938e-07 -1.894605e-10
2140          	-5.557667e-10 1.749181e-07 -1.895679e-10
2160          	-5.561826e-10 1.760424e-07 -1.896577e-10
2180          	-5.565232e-10 1.771668e-07 -1.897438e-10
2200          	-5.567990e-10 1.782913e-07 -1.898110e-10
2220          	-5.570444e-10 1.794157e-07 -1.898608e-10
2240          	-5.572823e-10 1.805400e-07 -1.899240e-10
2260          	-5.574884e-10 1.816644e-07 -1.899053e-10
2280          	-5.576829e-10 1.827888e-07 -1.898747e-10
2300          	-5.578948e-10 1.839131e-07 -1.898988e-10
2320          	-5.581199e-10 1.850374e-07 -1.898959e-10
2340          	-5.583688e-10 1.861617e-07 -1.898855e-10
2360          	-5.585766e-10 1.872862e-07 -1.898979e-10
