# Forces      
# CofR        : (0.000000e+00 0.000000e+00 0.000000e+00)
# Time        forces(pressure viscous porous)	moments(pressure viscous porous)
20            	((0.000000e+00 0.000000e+00 0.000000e+00) (0.000000e+00 0.000000e+00 0.000000e+00) (9.013387e+04 -4.394891e-13 7.004920e+04)) ((0.000000e+00 0.000000e+00 0.000000e+00) (0.000000e+00 0.000000e+00 0.000000e+00) (6.341809e+04 1.168810e+04 -7.974291e+04))
40            	((0.000000e+00 0.000000e+00 0.000000e+00) (0.000000e+00 0.000000e+00 0.000000e+00) (5.287409e+04 -1.062013e-12 1.020038e+05)) ((0.000000e+00 0.000000e+00 0.000000e+00) (0.000000e+00 0.000000e+00 0.000000e+00) (9.250105e+04 -3.598122e+04 -4.312401e+04))
60            	((0.000000e+00 0.000000e+00 0.000000e+00) (0.000000e+00 0.000000e+00 0.000000e+00) (1.937071e+04 -6.206330e-13 1.191252e+05)) ((0.000000e+00 0.000000e+00 0.000000e+00) (0.000000e+00 0.000000e+00 0.000000e+00) (1.062071e+05 -7.091913e+04 -1.103448e+04))
80            	((0.000000e+00 0.000000e+00 0.000000e+00) (0.000000e+00 0.000000e+00 0.000000e+00) (-1.677335e+04 1.802932e-12 1.259023e+05)) ((0.000000e+00 0.000000e+00 0.000000e+00) (0.000000e+00 0.000000e+00 0.000000e+00) (1.095022e+05 -1.004470e+05 2.396039e+04))
100           	((0.000000e+00 0.000000e+00 0.000000e+00) (0.000000e+00 0.000000e+00 0.000000e+00) (-5.122878e+04 -1.632581e-12 1.247523e+05)) ((0.000000e+00 0.000000e+00 0.000000e+00) (0.000000e+00 0.000000e+00 0.000000e+00) (1.051482e+05 -1.232519e+05 5.640651e+04))
120           	((0.000000e+00 0.000000e+00 0.000000e+00) (0.000000e+00 0.000000e+00 0.000000e+00) (-8.242882e+04 1.103100e-14 1.178370e+05)) ((0.000000e+00 0.000000e+00 0.000000e+00) (0.000000e+00 0.000000e+00 0.000000e+00) (9.557709e+04 -1.398579e+05 8.471673e+04))
140           	((0.000000e+00 0.000000e+00 0.000000e+00) (0.000000e+00 0.000000e+00 0.000000e+00) (-1.165259e+05 1.712824e-12 1.078367e+05)) ((0.000000e+00 0.000000e+00 0.000000e+00) (0.000000e+00 0.000000e+00 0.000000e+00) (8.510803e+04 -1.543048e+05 1.166176e+05))
160           	((0.000000e+00 0.000000e+00 0.000000e+00) (0.000000e+00 0.000000e+00 0.000000e+00) (-1.405111e+05 -2.748761e-13 8.777670e+04)) ((0.000000e+00 0.000000e+00 0.000000e+00) (0.000000e+00 0.000000e+00 0.000000e+00) (6.354221e+04 -1.593038e+05 1.327138e+05))
180           	((0.000000e+00 0.000000e+00 0.000000e+00) (0.000000e+00 0.000000e+00 0.000000e+00) (-1.494399e+05 6.449366e-13 7.018367e+04)) ((0.000000e+00 0.000000e+00 0.000000e+00) (0.000000e+00 0.000000e+00 0.000000e+00) (4.646422e+04 -1.553323e+05 1.358509e+05))
200           	((0.000000e+00 0.000000e+00 0.000000e+00) (0.000000e+00 0.000000e+00 0.000000e+00) (-1.525983e+05 4.593542e-13 5.226150e+04)) ((0.000000e+00 0.000000e+00 0.000000e+00) (0.000000e+00 0.000000e+00 0.000000e+00) (3.039263e+04 -1.473902e+05 1.335280e+05))
220           	((0.000000e+00 0.000000e+00 0.000000e+00) (0.000000e+00 0.000000e+00 0.000000e+00) (-1.499049e+05 -2.899460e-12 3.472910e+04)) ((0.000000e+00 0.000000e+00 0.000000e+00) (0.000000e+00 0.000000e+00 0.000000e+00) (1.581085e+04 -1.360427e+05 1.259736e+05))
240           	((0.000000e+00 0.000000e+00 0.000000e+00) (0.000000e+00 0.000000e+00 0.000000e+00) (-1.417814e+05 2.905501e-12 1.905679e+04)) ((0.000000e+00 0.000000e+00 0.000000e+00) (0.000000e+00 0.000000e+00 0.000000e+00) (3.924144e+03 -1.225773e+05 1.138997e+05))
260           	((0.000000e+00 0.000000e+00 0.000000e+00) (0.000000e+00 0.000000e+00 0.000000e+00) (-1.292888e+05 -1.457056e-12 6.539707e+03)) ((0.000000e+00 0.000000e+00 0.000000e+00) (0.000000e+00 0.000000e+00 0.000000e+00) (-4.367302e+03 -1.085291e+05 9.856174e+04))
280           	((0.000000e+00 0.000000e+00 0.000000e+00) (0.000000e+00 0.000000e+00 0.000000e+00) (-1.139731e+05 -1.590694e-12 -1.895862e+03)) ((0.000000e+00 0.000000e+00 0.000000e+00) (0.000000e+00 0.000000e+00 0.000000e+00) (-8.548009e+03 -9.542854e+04 8.159740e+04))
300           	((0.000000e+00 0.000000e+00 0.000000e+00) (0.000000e+00 0.000000e+00 0.000000e+00) (-9.738695e+04 4.003993e-12 -5.989783e+03)) ((0.000000e+00 0.000000e+00 0.000000e+00) (0.000000e+00 0.000000e+00 0.000000e+00) (-8.726544e+03 -8.436071e+04 6.452314e+04))
320           	((0.000000e+00 0.000000e+00 0.000000e+00) (0.000000e+00 0.000000e+00 0.000000e+00) (-8.081742e+04 -4.358180e-13 -6.171931e+03)) ((0.000000e+00 0.000000e+00 0.000000e+00) (0.000000e+00 0.000000e+00 0.000000e+00) (-5.649158e+03 -7.576785e+04 4.850837e+04))
340           	((0.000000e+00 0.000000e+00 0.000000e+00) (0.000000e+00 0.000000e+00 0.000000e+00) (-6.525541e+04 -4.108564e-12 -3.355130e+03)) ((0.000000e+00 0.000000e+00 0.000000e+00) (0.000000e+00 0.000000e+00 0.000000e+00) (-4.136241e+02 -6.961977e+04 3.436864e+04))
360           	((0.000000e+00 0.000000e+00 0.000000e+00) (0.000000e+00 0.000000e+00 0.000000e+00) (-5.132775e+04 3.703193e-13 1.383148e+03)) ((0.000000e+00 0.000000e+00 0.000000e+00) (0.000000e+00 0.000000e+00 0.000000e+00) (5.839042e+03 -6.556311e+04 2.251675e+04))
380           	((0.000000e+00 0.000000e+00 0.000000e+00) (0.000000e+00 0.000000e+00 0.000000e+00) (-3.942551e+04 2.601550e-12 7.119169e+03)) ((0.000000e+00 0.000000e+00 0.000000e+00) (0.000000e+00 0.000000e+00 0.000000e+00) (1.226678e+04 -6.322150e+04 1.308885e+04))
400           	((0.000000e+00 0.000000e+00 0.000000e+00) (0.000000e+00 0.000000e+00 0.000000e+00) (-2.950751e+04 6.221796e-13 1.331206e+04)) ((0.000000e+00 0.000000e+00 0.000000e+00) (0.000000e+00 0.000000e+00 0.000000e+00) (1.850355e+04 -6.219869e+04 5.776170e+03))
420           	((0.000000e+00 0.000000e+00 0.000000e+00) (0.000000e+00 0.000000e+00 0.000000e+00) (-2.145428e+04 4.339365e-13 1.954423e+04)) ((0.000000e+00 0.000000e+00 0.000000e+00) (0.000000e+00 0.000000e+00 0.000000e+00) (2.430898e+04 -6.214966e+04 1.568600e+02))
440           	((0.000000e+00 0.000000e+00 0.000000e+00) (0.000000e+00 0.000000e+00 0.000000e+00) (-1.501829e+04 -8.232052e-12 2.555997e+04)) ((0.000000e+00 0.000000e+00 0.000000e+00) (0.000000e+00 0.000000e+00 0.000000e+00) (2.957895e+04 -6.277001e+04 -4.151072e+03))
460           	((0.000000e+00 0.000000e+00 0.000000e+00) (0.000000e+00 0.000000e+00 0.000000e+00) (-9.891031e+03 -3.355993e-13 3.123046e+04)) ((0.000000e+00 0.000000e+00 0.000000e+00) (0.000000e+00 0.000000e+00 0.000000e+00) (3.430080e+04 -6.380322e+04 -7.465383e+03))
480           	((0.000000e+00 0.000000e+00 0.000000e+00) (0.000000e+00 0.000000e+00 0.000000e+00) (-5.838614e+03 7.764733e-12 3.650276e+04)) ((0.000000e+00 0.000000e+00 0.000000e+00) (0.000000e+00 0.000000e+00 0.000000e+00) (3.851114e+04 -6.509626e+04 -1.002287e+04))
500           	((0.000000e+00 0.000000e+00 0.000000e+00) (0.000000e+00 0.000000e+00 0.000000e+00) (-2.651195e+03 -1.455195e-12 4.134898e+04)) ((0.000000e+00 0.000000e+00 0.000000e+00) (0.000000e+00 0.000000e+00 0.000000e+00) (4.226957e+04 -6.653445e+04 -1.201503e+04))
520           	((0.000000e+00 0.000000e+00 0.000000e+00) (0.000000e+00 0.000000e+00 0.000000e+00) (-1.361229e+02 -7.160984e-12 4.576881e+04)) ((0.000000e+00 0.000000e+00 0.000000e+00) (0.000000e+00 0.000000e+00 0.000000e+00) (4.563270e+04 -6.802228e+04 -1.359645e+04))
540           	((0.000000e+00 0.000000e+00 0.000000e+00) (0.000000e+00 0.000000e+00 0.000000e+00) (1.826969e+03 1.039278e-11 4.983195e+04)) ((0.000000e+00 0.000000e+00 0.000000e+00) (0.000000e+00 0.000000e+00 0.000000e+00) (4.867097e+04 -6.955657e+04 -1.485672e+04))
560           	((0.000000e+00 0.000000e+00 0.000000e+00) (0.000000e+00 0.000000e+00 0.000000e+00) (3.371019e+03 7.331163e-12 5.355892e+04)) ((0.000000e+00 0.000000e+00 0.000000e+00) (0.000000e+00 0.000000e+00 0.000000e+00) (5.139665e+04 -7.108898e+04 -1.587730e+04))
580           	((0.000000e+00 0.000000e+00 0.000000e+00) (0.000000e+00 0.000000e+00 0.000000e+00) (4.590653e+03 5.904059e-12 5.688840e+04)) ((0.000000e+00 0.000000e+00 0.000000e+00) (0.000000e+00 0.000000e+00 0.000000e+00) (5.375655e+04 -7.253388e+04 -1.671948e+04))
600           	((0.000000e+00 0.000000e+00 0.000000e+00) (0.000000e+00 0.000000e+00 0.000000e+00) (5.589036e+03 -5.141882e-12 5.985888e+04)) ((0.000000e+00 0.000000e+00 0.000000e+00) (0.000000e+00 0.000000e+00 0.000000e+00) (5.581080e+04 -7.386689e+04 -1.742991e+04))
620           	((0.000000e+00 0.000000e+00 0.000000e+00) (0.000000e+00 0.000000e+00 0.000000e+00) (6.409972e+03 1.303619e-11 6.253477e+04)) ((0.000000e+00 0.000000e+00 0.000000e+00) (0.000000e+00 0.000000e+00 0.000000e+00) (5.762137e+04 -7.510608e+04 -1.801683e+04))
640           	((0.000000e+00 0.000000e+00 0.000000e+00) (0.000000e+00 0.000000e+00 0.000000e+00) (7.092290e+03 5.767824e-12 6.492968e+04)) ((0.000000e+00 0.000000e+00 0.000000e+00) (0.000000e+00 0.000000e+00 0.000000e+00) (5.922485e+04 -7.623766e+04 -1.850156e+04))
660           	((0.000000e+00 0.000000e+00 0.000000e+00) (0.000000e+00 0.000000e+00 0.000000e+00) (7.679896e+03 -1.086403e-11 6.708914e+04)) ((0.000000e+00 0.000000e+00 0.000000e+00) (0.000000e+00 0.000000e+00 0.000000e+00) (6.067331e+04 -7.726347e+04 -1.890492e+04))
680           	((0.000000e+00 0.000000e+00 0.000000e+00) (0.000000e+00 0.000000e+00 0.000000e+00) (8.173616e+03 -2.370020e-12 6.903804e+04)) ((0.000000e+00 0.000000e+00 0.000000e+00) (0.000000e+00 0.000000e+00 0.000000e+00) (6.197622e+04 -7.819773e+04 -1.922182e+04))
700           	((0.000000e+00 0.000000e+00 0.000000e+00) (0.000000e+00 0.000000e+00 0.000000e+00) (8.595822e+03 1.224997e-11 7.077272e+04)) ((0.000000e+00 0.000000e+00 0.000000e+00) (0.000000e+00 0.000000e+00 0.000000e+00) (6.312303e+04 -7.903175e+04 -1.947263e+04))
720           	((0.000000e+00 0.000000e+00 0.000000e+00) (0.000000e+00 0.000000e+00 0.000000e+00) (8.959872e+03 -1.200368e-12 7.227979e+04)) ((0.000000e+00 0.000000e+00 0.000000e+00) (0.000000e+00 0.000000e+00 0.000000e+00) (6.409873e+04 -7.975376e+04 -1.967210e+04))
740           	((0.000000e+00 0.000000e+00 0.000000e+00) (0.000000e+00 0.000000e+00 0.000000e+00) (9.279827e+03 -1.127621e-11 7.354316e+04)) ((0.000000e+00 0.000000e+00 0.000000e+00) (0.000000e+00 0.000000e+00 0.000000e+00) (6.488582e+04 -8.034559e+04 -1.983793e+04))
760           	((0.000000e+00 0.000000e+00 0.000000e+00) (0.000000e+00 0.000000e+00 0.000000e+00) (9.575126e+03 1.839640e-11 7.457829e+04)) ((0.000000e+00 0.000000e+00 0.000000e+00) (0.000000e+00 0.000000e+00 0.000000e+00) (6.549768e+04 -8.080394e+04 -1.998971e+04))
780           	((0.000000e+00 0.000000e+00 0.000000e+00) (0.000000e+00 0.000000e+00 0.000000e+00) (9.865354e+03 -1.124978e-11 7.540079e+04)) ((0.000000e+00 0.000000e+00 0.000000e+00) (0.000000e+00 0.000000e+00 0.000000e+00) (6.595554e+04 -8.112875e+04 -2.014387e+04))
800           	((0.000000e+00 0.000000e+00 0.000000e+00) (0.000000e+00 0.000000e+00 0.000000e+00) (1.016936e+04 2.002604e-11 7.602131e+04)) ((0.000000e+00 0.000000e+00 0.000000e+00) (0.000000e+00 0.000000e+00 0.000000e+00) (6.627949e+04 -8.131754e+04 -2.031512e+04))
820           	((0.000000e+00 0.000000e+00 0.000000e+00) (0.000000e+00 0.000000e+00 0.000000e+00) (1.049652e+04 2.498308e-12 7.645022e+04)) ((0.000000e+00 0.000000e+00 0.000000e+00) (0.000000e+00 0.000000e+00 0.000000e+00) (6.648352e+04 -8.137285e+04 -2.051216e+04))
840           	((0.000000e+00 0.000000e+00 0.000000e+00) (0.000000e+00 0.000000e+00 0.000000e+00) (1.084698e+04 -5.331665e-12 7.671004e+04)) ((0.000000e+00 0.000000e+00 0.000000e+00) (0.000000e+00 0.000000e+00 0.000000e+00) (6.658046e+04 -8.131117e+04 -2.073475e+04))
