# Region      : cellZone cz_solid_7
# Cells       : 2027
# Volume      : 2.144439e-03
# Time        	volIntegrate(U)
20            	(-3.682264e-09 -3.494860e-09 1.475832e-09)
40            	(-3.546554e-09 -6.232227e-09 1.615707e-09)
60            	(-3.746948e-09 -9.035562e-09 1.802412e-09)
80            	(-3.973440e-09 -1.199983e-08 1.987298e-09)
100           	(-4.205612e-09 -1.522878e-08 2.163423e-09)
120           	(-4.438708e-09 -1.879519e-08 2.324983e-09)
140           	(-4.763318e-09 -2.280793e-08 2.460918e-09)
160           	(-5.043598e-09 -2.732177e-08 2.625731e-09)
180           	(-5.290603e-09 -3.230629e-08 2.732050e-09)
200           	(-5.525409e-09 -3.771144e-08 2.808571e-09)
220           	(-5.741061e-09 -4.348123e-08 2.851448e-09)
240           	(-5.934068e-09 -4.955300e-08 2.861545e-09)
260           	(-6.098473e-09 -5.586202e-08 2.846048e-09)
280           	(-6.228883e-09 -6.234715e-08 2.818973e-09)
300           	(-6.306845e-09 -6.894296e-08 2.791423e-09)
320           	(-6.310015e-09 -7.556182e-08 2.761804e-09)
340           	(-6.223373e-09 -8.208186e-08 2.710708e-09)
360           	(-6.049701e-09 -8.840700e-08 2.624093e-09)
380           	(-5.788007e-09 -9.452039e-08 2.518700e-09)
400           	(-5.439564e-09 -1.004022e-07 2.419892e-09)
420           	(-5.039989e-09 -1.059777e-07 2.338037e-09)
440           	(-4.651995e-09 -1.111748e-07 2.271875e-09)
460           	(-4.326265e-09 -1.159860e-07 2.216880e-09)
480           	(-4.081747e-09 -1.204727e-07 2.171073e-09)
500           	(-3.911390e-09 -1.247250e-07 2.133234e-09)
520           	(-3.797582e-09 -1.288215e-07 2.101484e-09)
540           	(-3.721586e-09 -1.328146e-07 2.072892e-09)
560           	(-3.668371e-09 -1.367348e-07 2.045104e-09)
580           	(-3.626744e-09 -1.405983e-07 2.016772e-09)
600           	(-3.587910e-09 -1.444119e-07 1.986662e-09)
620           	(-3.545574e-09 -1.481768e-07 1.952676e-09)
640           	(-3.495390e-09 -1.518923e-07 1.913279e-09)
660           	(-3.434281e-09 -1.555564e-07 1.867096e-09)
680           	(-3.360231e-09 -1.591649e-07 1.813287e-09)
700           	(-3.271959e-09 -1.627119e-07 1.751921e-09)
720           	(-3.169462e-09 -1.661901e-07 1.684675e-09)
740           	(-3.053954e-09 -1.695904e-07 1.614619e-09)
760           	(-2.927537e-09 -1.728998e-07 1.545574e-09)
780           	(-2.794355e-09 -1.761012e-07 1.481053e-09)
800           	(-2.658288e-09 -1.791756e-07 1.423598e-09)
820           	(-2.521773e-09 -1.821040e-07 1.374171e-09)
840           	(-2.384583e-09 -1.848703e-07 1.331114e-09)
860           	(-2.243779e-09 -1.874635e-07 1.289750e-09)
880           	(-2.093977e-09 -1.898823e-07 1.249457e-09)
900           	(-1.934916e-09 -1.921329e-07 1.215550e-09)
920           	(-1.775060e-09 -1.942166e-07 1.188569e-09)
940           	(-1.623064e-09 -1.961399e-07 1.168732e-09)
960           	(-1.486928e-09 -1.979164e-07 1.156265e-09)
980           	(-1.371655e-09 -1.995592e-07 1.148212e-09)
1000          	(-1.283227e-09 -2.010792e-07 1.144880e-09)
1020          	(-1.227303e-09 -2.024826e-07 1.139116e-09)
1040          	(-1.190371e-09 -2.038012e-07 1.131604e-09)
1060          	(-1.173260e-09 -2.050674e-07 1.124507e-09)
1080          	(-1.163836e-09 -2.063038e-07 1.120601e-09)
1100          	(-1.142949e-09 -2.075169e-07 1.122445e-09)
1120          	(-1.114097e-09 -2.086873e-07 1.123764e-09)
1140          	(-1.085962e-09 -2.097942e-07 1.123009e-09)
1160          	(-1.060211e-09 -2.108284e-07 1.121064e-09)
1180          	(-1.036829e-09 -2.117882e-07 1.118682e-09)
1200          	(-1.015387e-09 -2.126735e-07 1.116171e-09)
1220          	(-9.949507e-10 -2.134871e-07 1.113820e-09)
1240          	(-9.751121e-10 -2.142305e-07 1.111485e-09)
1260          	(-9.558768e-10 -2.149029e-07 1.108811e-09)
1280          	(-9.379313e-10 -2.155042e-07 1.105954e-09)
1300          	(-9.209770e-10 -2.160337e-07 1.102858e-09)
1320          	(-9.048939e-10 -2.164915e-07 1.099503e-09)
1340          	(-8.900084e-10 -2.168805e-07 1.096117e-09)
1360          	(-8.760844e-10 -2.172056e-07 1.092695e-09)
1380          	(-8.629305e-10 -2.174730e-07 1.089537e-09)
1400          	(-8.502164e-10 -2.176899e-07 1.086703e-09)
1420          	(-8.380453e-10 -2.178633e-07 1.084324e-09)
1440          	(-8.266150e-10 -2.179985e-07 1.082277e-09)
1460          	(-8.159419e-10 -2.180994e-07 1.080535e-09)
1480          	(-8.058755e-10 -2.181696e-07 1.079089e-09)
1500          	(-7.962695e-10 -2.182124e-07 1.077796e-09)
1520          	(-7.875567e-10 -2.182299e-07 1.076878e-09)
1540          	(-7.793017e-10 -2.182245e-07 1.076213e-09)
1560          	(-7.715674e-10 -2.181991e-07 1.075701e-09)
1580          	(-7.645121e-10 -2.181563e-07 1.075403e-09)
1600          	(-7.577469e-10 -2.180983e-07 1.075157e-09)
1620          	(-7.518484e-10 -2.180279e-07 1.075287e-09)
1640          	(-7.463951e-10 -2.179478e-07 1.075599e-09)
1660          	(-7.414596e-10 -2.178608e-07 1.076188e-09)
1680          	(-7.371958e-10 -2.177700e-07 1.077215e-09)
1700          	(-7.337790e-10 -2.176781e-07 1.078748e-09)
1720          	(-7.306986e-10 -2.175865e-07 1.080566e-09)
1740          	(-7.283811e-10 -2.174965e-07 1.082854e-09)
1760          	(-7.263215e-10 -2.174080e-07 1.085201e-09)
1780          	(-7.245925e-10 -2.173205e-07 1.087532e-09)
1800          	(-7.228661e-10 -2.172326e-07 1.089545e-09)
1820          	(-7.210075e-10 -2.171433e-07 1.091148e-09)
1840          	(-7.195730e-10 -2.170516e-07 1.092389e-09)
1860          	(-7.183702e-10 -2.169571e-07 1.093447e-09)
1880          	(-7.172101e-10 -2.168593e-07 1.094203e-09)
1900          	(-7.163678e-10 -2.167585e-07 1.094880e-09)
