# Forces      
# CofR        : (0.000000e+00 0.000000e+00 0.000000e+00)
# Time        forces(pressure viscous porous)	moments(pressure viscous porous)
20            	((0.000000e+00 0.000000e+00 0.000000e+00) (0.000000e+00 0.000000e+00 0.000000e+00) (8.839369e+04 -3.358094e-13 5.844391e+04)) ((0.000000e+00 0.000000e+00 0.000000e+00) (0.000000e+00 0.000000e+00 0.000000e+00) (5.129491e+04 1.776480e+04 -7.983666e+04))
40            	((0.000000e+00 0.000000e+00 0.000000e+00) (0.000000e+00 0.000000e+00 0.000000e+00) (5.319244e+04 5.849511e-13 8.775075e+04)) ((0.000000e+00 0.000000e+00 0.000000e+00) (0.000000e+00 0.000000e+00 0.000000e+00) (7.795869e+04 -2.719400e+04 -4.303970e+04))
60            	((0.000000e+00 0.000000e+00 0.000000e+00) (0.000000e+00 0.000000e+00 0.000000e+00) (1.804574e+04 -6.807599e-13 1.024411e+05)) ((0.000000e+00 0.000000e+00 0.000000e+00) (0.000000e+00 0.000000e+00 0.000000e+00) (8.881531e+04 -6.212028e+04 -7.640010e+03))
80            	((0.000000e+00 0.000000e+00 0.000000e+00) (0.000000e+00 0.000000e+00 0.000000e+00) (-1.662519e+04 1.319028e-12 1.095496e+05)) ((0.000000e+00 0.000000e+00 0.000000e+00) (0.000000e+00 0.000000e+00 0.000000e+00) (9.223237e+04 -9.057649e+04 2.648224e+04))
100           	((0.000000e+00 0.000000e+00 0.000000e+00) (0.000000e+00 0.000000e+00 0.000000e+00) (-5.048028e+04 -2.266329e-13 1.094938e+05)) ((0.000000e+00 0.000000e+00 0.000000e+00) (0.000000e+00 0.000000e+00 0.000000e+00) (8.844930e+04 -1.134017e+05 5.900260e+04))
120           	((0.000000e+00 0.000000e+00 0.000000e+00) (0.000000e+00 0.000000e+00 0.000000e+00) (-7.995756e+04 -1.597745e-12 1.040625e+05)) ((0.000000e+00 0.000000e+00 0.000000e+00) (0.000000e+00 0.000000e+00 0.000000e+00) (7.998878e+04 -1.293573e+05 8.561408e+04))
140           	((0.000000e+00 0.000000e+00 0.000000e+00) (0.000000e+00 0.000000e+00 0.000000e+00) (-1.168196e+05 -1.417573e-12 9.374615e+04)) ((0.000000e+00 0.000000e+00 0.000000e+00) (0.000000e+00 0.000000e+00 0.000000e+00) (6.883748e+04 -1.453611e+05 1.196926e+05))
160           	((0.000000e+00 0.000000e+00 0.000000e+00) (0.000000e+00 0.000000e+00 0.000000e+00) (-1.351871e+05 -2.195384e-13 7.426978e+04)) ((0.000000e+00 0.000000e+00 0.000000e+00) (0.000000e+00 0.000000e+00 0.000000e+00) (4.727629e+04 -1.467674e+05 1.302870e+05))
180           	((0.000000e+00 0.000000e+00 0.000000e+00) (0.000000e+00 0.000000e+00 0.000000e+00) (-1.430916e+05 -1.141075e-12 5.696689e+04)) ((0.000000e+00 0.000000e+00 0.000000e+00) (0.000000e+00 0.000000e+00 0.000000e+00) (3.024853e+04 -1.421195e+05 1.319789e+05))
200           	((0.000000e+00 0.000000e+00 0.000000e+00) (0.000000e+00 0.000000e+00 0.000000e+00) (-1.453559e+05 -1.348190e-12 3.930224e+04)) ((0.000000e+00 0.000000e+00 0.000000e+00) (0.000000e+00 0.000000e+00 0.000000e+00) (1.430334e+04 -1.337168e+05 1.283286e+05))
220           	((0.000000e+00 0.000000e+00 0.000000e+00) (0.000000e+00 0.000000e+00 0.000000e+00) (-1.415442e+05 1.225074e-12 2.232058e+04)) ((0.000000e+00 0.000000e+00 0.000000e+00) (0.000000e+00 0.000000e+00 0.000000e+00) (2.424010e+02 -1.221031e+05 1.192330e+05))
240           	((0.000000e+00 0.000000e+00 0.000000e+00) (0.000000e+00 0.000000e+00 0.000000e+00) (-1.320959e+05 9.587196e-13 7.319376e+03)) ((0.000000e+00 0.000000e+00 0.000000e+00) (0.000000e+00 0.000000e+00 0.000000e+00) (-1.097914e+04 -1.084501e+05 1.054816e+05))
260           	((0.000000e+00 0.000000e+00 0.000000e+00) (0.000000e+00 0.000000e+00 0.000000e+00) (-1.185174e+05 -2.548342e-12 -4.166472e+03)) ((0.000000e+00 0.000000e+00 0.000000e+00) (0.000000e+00 0.000000e+00 0.000000e+00) (-1.819768e+04 -9.461605e+04 8.887495e+04))
280           	((0.000000e+00 0.000000e+00 0.000000e+00) (0.000000e+00 0.000000e+00 0.000000e+00) (-1.028503e+05 -9.433109e-12 -1.118983e+04)) ((0.000000e+00 0.000000e+00 0.000000e+00) (0.000000e+00 0.000000e+00 0.000000e+00) (-2.090890e+04 -8.243514e+04 7.156536e+04))
300           	((0.000000e+00 0.000000e+00 0.000000e+00) (0.000000e+00 0.000000e+00 0.000000e+00) (-8.665910e+04 -1.370587e-12 -1.354729e+04)) ((0.000000e+00 0.000000e+00 0.000000e+00) (0.000000e+00 0.000000e+00 0.000000e+00) (-1.929356e+04 -7.292328e+04 5.507719e+04))
320           	((0.000000e+00 0.000000e+00 0.000000e+00) (0.000000e+00 0.000000e+00 0.000000e+00) (-7.123926e+04 1.332825e-12 -1.208856e+04)) ((0.000000e+00 0.000000e+00 0.000000e+00) (0.000000e+00 0.000000e+00 0.000000e+00) (-1.458658e+04 -6.624102e+04 4.049148e+04))
340           	((0.000000e+00 0.000000e+00 0.000000e+00) (0.000000e+00 0.000000e+00 0.000000e+00) (-5.738827e+04 -2.089802e-12 -8.024805e+03)) ((0.000000e+00 0.000000e+00 0.000000e+00) (0.000000e+00 0.000000e+00 0.000000e+00) (-8.218269e+03 -6.200334e+04 2.835589e+04))
360           	((0.000000e+00 0.000000e+00 0.000000e+00) (0.000000e+00 0.000000e+00 0.000000e+00) (-4.554651e+04 -5.596630e-14 -2.480937e+03)) ((0.000000e+00 0.000000e+00 0.000000e+00) (0.000000e+00 0.000000e+00 0.000000e+00) (-1.361773e+03 -5.970651e+04 1.878533e+04))
380           	((0.000000e+00 0.000000e+00 0.000000e+00) (0.000000e+00 0.000000e+00 0.000000e+00) (-3.580970e+04 4.817963e-12 3.649097e+03)) ((0.000000e+00 0.000000e+00 0.000000e+00) (0.000000e+00 0.000000e+00 0.000000e+00) (5.184643e+03 -5.882531e+04 1.157325e+04))
400           	((0.000000e+00 0.000000e+00 0.000000e+00) (0.000000e+00 0.000000e+00 0.000000e+00) (-2.792804e+04 5.831814e-12 9.934972e+03)) ((0.000000e+00 0.000000e+00 0.000000e+00) (0.000000e+00 0.000000e+00 0.000000e+00) (1.119001e+04 -5.894404e+04 6.183365e+03))
420           	((0.000000e+00 0.000000e+00 0.000000e+00) (0.000000e+00 0.000000e+00 0.000000e+00) (-2.170665e+04 -3.423904e-12 1.607501e+04)) ((0.000000e+00 0.000000e+00 0.000000e+00) (0.000000e+00 0.000000e+00 0.000000e+00) (1.658296e+04 -5.978694e+04 2.177340e+03))
440           	((0.000000e+00 0.000000e+00 0.000000e+00) (0.000000e+00 0.000000e+00 0.000000e+00) (-1.687604e+04 -6.483202e-12 2.181876e+04)) ((0.000000e+00 0.000000e+00 0.000000e+00) (0.000000e+00 0.000000e+00 0.000000e+00) (2.132731e+04 -6.105459e+04 -7.993675e+02))
460           	((0.000000e+00 0.000000e+00 0.000000e+00) (0.000000e+00 0.000000e+00 0.000000e+00) (-1.313409e+04 -4.755492e-12 2.703239e+04)) ((0.000000e+00 0.000000e+00 0.000000e+00) (0.000000e+00 0.000000e+00 0.000000e+00) (2.545574e+04 -6.249475e+04 -3.039632e+03))
480           	((0.000000e+00 0.000000e+00 0.000000e+00) (0.000000e+00 0.000000e+00 0.000000e+00) (-1.026859e+04 1.753926e-12 3.168839e+04)) ((0.000000e+00 0.000000e+00 0.000000e+00) (0.000000e+00 0.000000e+00 0.000000e+00) (2.902852e+04 -6.398897e+04 -4.747091e+03))
500           	((0.000000e+00 0.000000e+00 0.000000e+00) (0.000000e+00 0.000000e+00 0.000000e+00) (-8.052124e+03 2.807332e-12 3.583105e+04)) ((0.000000e+00 0.000000e+00 0.000000e+00) (0.000000e+00 0.000000e+00 0.000000e+00) (3.212659e+04 -6.545914e+04 -6.095321e+03))
520           	((0.000000e+00 0.000000e+00 0.000000e+00) (0.000000e+00 0.000000e+00 0.000000e+00) (-6.309973e+03 -2.419294e-12 3.953295e+04)) ((0.000000e+00 0.000000e+00 0.000000e+00) (0.000000e+00 0.000000e+00 0.000000e+00) (3.482283e+04 -6.686865e+04 -7.204852e+03))
540           	((0.000000e+00 0.000000e+00 0.000000e+00) (0.000000e+00 0.000000e+00 0.000000e+00) (-4.920256e+03 4.466007e-12 4.284649e+04)) ((0.000000e+00 0.000000e+00 0.000000e+00) (0.000000e+00 0.000000e+00 0.000000e+00) (3.716849e+04 -6.820503e+04 -8.139283e+03))
560           	((0.000000e+00 0.000000e+00 0.000000e+00) (0.000000e+00 0.000000e+00 0.000000e+00) (-3.763921e+03 8.194549e-12 4.583197e+04)) ((0.000000e+00 0.000000e+00 0.000000e+00) (0.000000e+00 0.000000e+00 0.000000e+00) (3.923137e+04 -6.944715e+04 -8.962228e+03))
580           	((0.000000e+00 0.000000e+00 0.000000e+00) (0.000000e+00 0.000000e+00 0.000000e+00) (-2.774836e+03 7.648963e-13 4.850077e+04)) ((0.000000e+00 0.000000e+00 0.000000e+00) (0.000000e+00 0.000000e+00 0.000000e+00) (4.104498e+04 -7.057016e+04 -9.697254e+03))
600           	((0.000000e+00 0.000000e+00 0.000000e+00) (0.000000e+00 0.000000e+00 0.000000e+00) (-1.929806e+03 -7.206540e-12 5.090484e+04)) ((0.000000e+00 0.000000e+00 0.000000e+00) (0.000000e+00 0.000000e+00 0.000000e+00) (4.267712e+04 -7.159512e+04 -1.032429e+04))
620           	((0.000000e+00 0.000000e+00 0.000000e+00) (0.000000e+00 0.000000e+00 0.000000e+00) (-1.192853e+03 -5.698416e-12 5.307426e+04)) ((0.000000e+00 0.000000e+00 0.000000e+00) (0.000000e+00 0.000000e+00 0.000000e+00) (4.417297e+04 -7.251691e+04 -1.085419e+04))
640           	((0.000000e+00 0.000000e+00 0.000000e+00) (0.000000e+00 0.000000e+00 0.000000e+00) (-5.464962e+02 6.139647e-12 5.504129e+04)) ((0.000000e+00 0.000000e+00 0.000000e+00) (0.000000e+00 0.000000e+00 0.000000e+00) (4.554570e+04 -7.334754e+04 -1.128315e+04))
660           	((0.000000e+00 0.000000e+00 0.000000e+00) (0.000000e+00 0.000000e+00 0.000000e+00) (2.176540e+00 1.275398e-11 5.679618e+04)) ((0.000000e+00 0.000000e+00 0.000000e+00) (0.000000e+00 0.000000e+00 0.000000e+00) (4.676284e+04 -7.409553e+04 -1.159569e+04))
680           	((0.000000e+00 0.000000e+00 0.000000e+00) (0.000000e+00 0.000000e+00 0.000000e+00) (4.813284e+02 6.555399e-12 5.829592e+04)) ((0.000000e+00 0.000000e+00 0.000000e+00) (0.000000e+00 0.000000e+00 0.000000e+00) (4.778451e+04 -7.472718e+04 -1.182654e+04))
700           	((0.000000e+00 0.000000e+00 0.000000e+00) (0.000000e+00 0.000000e+00 0.000000e+00) (9.106731e+02 -4.804385e-12 5.954350e+04)) ((0.000000e+00 0.000000e+00 0.000000e+00) (0.000000e+00 0.000000e+00 0.000000e+00) (4.860086e+04 -7.523633e+04 -1.200987e+04))
720           	((0.000000e+00 0.000000e+00 0.000000e+00) (0.000000e+00 0.000000e+00 0.000000e+00) (1.304729e+03 5.806162e-12 6.056097e+04)) ((0.000000e+00 0.000000e+00 0.000000e+00) (0.000000e+00 0.000000e+00 0.000000e+00) (4.922469e+04 -7.562505e+04 -1.217613e+04))
740           	((0.000000e+00 0.000000e+00 0.000000e+00) (0.000000e+00 0.000000e+00 0.000000e+00) (1.682402e+03 7.747184e-12 6.137451e+04)) ((0.000000e+00 0.000000e+00 0.000000e+00) (0.000000e+00 0.000000e+00 0.000000e+00) (4.969108e+04 -7.589609e+04 -1.234300e+04))
760           	((0.000000e+00 0.000000e+00 0.000000e+00) (0.000000e+00 0.000000e+00 0.000000e+00) (2.061585e+03 -1.148310e-11 6.199705e+04)) ((0.000000e+00 0.000000e+00 0.000000e+00) (0.000000e+00 0.000000e+00 0.000000e+00) (5.002756e+04 -7.604874e+04 -1.251692e+04))
780           	((0.000000e+00 0.000000e+00 0.000000e+00) (0.000000e+00 0.000000e+00 0.000000e+00) (2.471384e+03 5.870373e-12 6.243998e+04)) ((0.000000e+00 0.000000e+00 0.000000e+00) (0.000000e+00 0.000000e+00 0.000000e+00) (5.025631e+04 -7.607630e+04 -1.271979e+04))
800           	((0.000000e+00 0.000000e+00 0.000000e+00) (0.000000e+00 0.000000e+00 0.000000e+00) (2.922434e+03 -7.169042e-12 6.272073e+04)) ((0.000000e+00 0.000000e+00 0.000000e+00) (0.000000e+00 0.000000e+00 0.000000e+00) (5.039373e+04 -7.598349e+04 -1.295912e+04))
820           	((0.000000e+00 0.000000e+00 0.000000e+00) (0.000000e+00 0.000000e+00 0.000000e+00) (3.414631e+03 -1.268850e-11 6.287482e+04)) ((0.000000e+00 0.000000e+00 0.000000e+00) (0.000000e+00 0.000000e+00 0.000000e+00) (5.045849e+04 -7.579114e+04 -1.323166e+04))
840           	((0.000000e+00 0.000000e+00 0.000000e+00) (0.000000e+00 0.000000e+00 0.000000e+00) (3.940827e+03 -1.635664e-11 6.295049e+04)) ((0.000000e+00 0.000000e+00 0.000000e+00) (0.000000e+00 0.000000e+00 0.000000e+00) (5.047535e+04 -7.553484e+04 -1.353101e+04))
860           	((0.000000e+00 0.000000e+00 0.000000e+00) (0.000000e+00 0.000000e+00 0.000000e+00) (4.481848e+03 5.526940e-12 6.297700e+04)) ((0.000000e+00 0.000000e+00 0.000000e+00) (0.000000e+00 0.000000e+00 0.000000e+00) (5.045896e+04 -7.524507e+04 -1.384651e+04))
880           	((0.000000e+00 0.000000e+00 0.000000e+00) (0.000000e+00 0.000000e+00 0.000000e+00) (5.015301e+03 -3.206107e-11 6.298407e+04)) ((0.000000e+00 0.000000e+00 0.000000e+00) (0.000000e+00 0.000000e+00 0.000000e+00) (5.042930e+04 -7.495524e+04 -1.416484e+04))
900           	((0.000000e+00 0.000000e+00 0.000000e+00) (0.000000e+00 0.000000e+00 0.000000e+00) (5.517943e+03 -1.425199e-11 6.297057e+04)) ((0.000000e+00 0.000000e+00 0.000000e+00) (0.000000e+00 0.000000e+00 0.000000e+00) (5.038939e+04 -7.467830e+04 -1.447267e+04))
920           	((0.000000e+00 0.000000e+00 0.000000e+00) (0.000000e+00 0.000000e+00 0.000000e+00) (5.965728e+03 -1.578223e-11 6.292961e+04)) ((0.000000e+00 0.000000e+00 0.000000e+00) (0.000000e+00 0.000000e+00 0.000000e+00) (5.033910e+04 -7.442088e+04 -1.476125e+04))
940           	((0.000000e+00 0.000000e+00 0.000000e+00) (0.000000e+00 0.000000e+00 0.000000e+00) (6.338719e+03 -2.626547e-12 6.286027e+04)) ((0.000000e+00 0.000000e+00 0.000000e+00) (0.000000e+00 0.000000e+00 0.000000e+00) (5.027630e+04 -7.419096e+04 -1.502306e+04))
960           	((0.000000e+00 0.000000e+00 0.000000e+00) (0.000000e+00 0.000000e+00 0.000000e+00) (6.629235e+03 -2.253986e-11 6.277852e+04)) ((0.000000e+00 0.000000e+00 0.000000e+00) (0.000000e+00 0.000000e+00 0.000000e+00) (5.020830e+04 -7.400060e+04 -1.525653e+04))
980           	((0.000000e+00 0.000000e+00 0.000000e+00) (0.000000e+00 0.000000e+00 0.000000e+00) (6.854792e+03 -3.463458e-12 6.268082e+04)) ((0.000000e+00 0.000000e+00 0.000000e+00) (0.000000e+00 0.000000e+00 0.000000e+00) (5.013392e+04 -7.383737e+04 -1.546494e+04))
1000          	((0.000000e+00 0.000000e+00 0.000000e+00) (0.000000e+00 0.000000e+00 0.000000e+00) (7.049143e+03 -6.780227e-12 6.255389e+04)) ((0.000000e+00 0.000000e+00 0.000000e+00) (0.000000e+00 0.000000e+00 0.000000e+00) (5.005050e+04 -7.367185e+04 -1.565833e+04))
1020          	((0.000000e+00 0.000000e+00 0.000000e+00) (0.000000e+00 0.000000e+00 0.000000e+00) (7.252676e+03 -2.483325e-11 6.237653e+04)) ((0.000000e+00 0.000000e+00 0.000000e+00) (0.000000e+00 0.000000e+00 0.000000e+00) (4.995227e+04 -7.346730e+04 -1.584738e+04))
1040          	((0.000000e+00 0.000000e+00 0.000000e+00) (0.000000e+00 0.000000e+00 0.000000e+00) (7.452374e+03 -1.724113e-11 6.216892e+04)) ((0.000000e+00 0.000000e+00 0.000000e+00) (0.000000e+00 0.000000e+00 0.000000e+00) (4.984424e+04 -7.324110e+04 -1.603535e+04))
1060          	((0.000000e+00 0.000000e+00 0.000000e+00) (0.000000e+00 0.000000e+00 0.000000e+00) (7.623798e+03 -1.099048e-11 6.200641e+04)) ((0.000000e+00 0.000000e+00 0.000000e+00) (0.000000e+00 0.000000e+00 0.000000e+00) (4.975030e+04 -7.306102e+04 -1.622050e+04))
1080          	((0.000000e+00 0.000000e+00 0.000000e+00) (0.000000e+00 0.000000e+00 0.000000e+00) (7.762237e+03 4.544519e-12 6.193717e+04)) ((0.000000e+00 0.000000e+00 0.000000e+00) (0.000000e+00 0.000000e+00 0.000000e+00) (4.969389e+04 -7.296336e+04 -1.640396e+04))
